# vtk DataFile Version 1.0 
Bar_TO_3D 
ASCII 
DATASET UNSTRUCTURED_GRID 
POINTS 1701 float 
0.000000 0.000000 
0.000000 0.000000 2.000000 
0.000000 0.000000 4.000000 
0.000000 0.000000 6.000000 
0.000000 0.000000 8.000000 
0.000000 0.000000 10.000000 
0.000000 0.000000 12.000000 
0.000000 0.000000 14.000000 
0.000000 0.000000 16.000000 
0.000000 0.000000 18.000000 
0.000000 0.000000 20.000000 
0.000000 0.000000 22.000000 
0.000000 0.000000 24.000000 
0.000000 0.000000 26.000000 
0.000000 0.000000 28.000000 
0.000000 0.000000 30.000000 
0.000000 0.000000 32.000000 
0.000000 0.000000 34.000000 
0.000000 0.000000 36.000000 
0.000000 0.000000 38.000000 
0.000000 0.000000 40.000000 
0.000000 0.000000 42.000000 
0.000000 0.000000 44.000000 
0.000000 0.000000 46.000000 
0.000000 0.000000 48.000000 
0.000000 0.000000 50.000000 
0.000000 0.000000 52.000000 
0.000000 0.000000 54.000000 
0.000000 0.000000 56.000000 
0.000000 0.000000 58.000000 
0.000000 0.000000 60.000000 
0.000000 0.000000 62.000000 
0.000000 0.000000 64.000000 
0.000000 0.000000 66.000000 
0.000000 0.000000 68.000000 
0.000000 0.000000 70.000000 
0.000000 0.000000 72.000000 
0.000000 0.000000 74.000000 
0.000000 0.000000 76.000000 
0.000000 0.000000 78.000000 
0.000000 0.000000 80.000000 
0.000000 0.000000 82.000000 
0.000000 0.000000 84.000000 
0.000000 0.000000 86.000000 
0.000000 0.000000 88.000000 
0.000000 0.000000 90.000000 
0.000000 0.000000 92.000000 
0.000000 0.000000 94.000000 
0.000000 0.000000 96.000000 
0.000000 0.000000 98.000000 
0.000000 0.000000 100.000000 
0.000000 2.000000 0.000000 
0.000000 2.000000 2.000000 
0.000000 2.000000 4.000000 
0.000000 2.000000 6.000000 
0.000000 2.000000 8.000000 
0.000000 2.000000 10.000000 
0.000000 2.000000 12.000000 
0.000000 2.000000 14.000000 
0.000000 2.000000 16.000000 
0.000000 2.000000 18.000000 
0.000000 2.000000 20.000000 
0.000000 2.000000 22.000000 
0.000000 2.000000 24.000000 
0.000000 2.000000 26.000000 
0.000000 2.000000 28.000000 
0.000000 2.000000 30.000000 
0.000000 2.000000 32.000000 
0.000000 2.000000 34.000000 
0.000000 2.000000 36.000000 
0.000000 2.000000 38.000000 
0.000000 2.000000 40.000000 
0.000000 2.000000 42.000000 
0.000000 2.000000 44.000000 
0.000000 2.000000 46.000000 
0.000000 2.000000 48.000000 
0.000000 2.000000 50.000000 
0.000000 2.000000 52.000000 
0.000000 2.000000 54.000000 
0.000000 2.000000 56.000000 
0.000000 2.000000 58.000000 
0.000000 2.000000 60.000000 
0.000000 2.000000 62.000000 
0.000000 2.000000 64.000000 
0.000000 2.000000 66.000000 
0.000000 2.000000 68.000000 
0.000000 2.000000 70.000000 
0.000000 2.000000 72.000000 
0.000000 2.000000 74.000000 
0.000000 2.000000 76.000000 
0.000000 2.000000 78.000000 
0.000000 2.000000 80.000000 
0.000000 2.000000 82.000000 
0.000000 2.000000 84.000000 
0.000000 2.000000 86.000000 
0.000000 2.000000 88.000000 
0.000000 2.000000 90.000000 
0.000000 2.000000 92.000000 
0.000000 2.000000 94.000000 
0.000000 2.000000 96.000000 
0.000000 2.000000 98.000000 
0.000000 2.000000 100.000000 
0.000000 4.000000 0.000000 
0.000000 4.000000 2.000000 
0.000000 4.000000 4.000000 
0.000000 4.000000 6.000000 
0.000000 4.000000 8.000000 
0.000000 4.000000 10.000000 
0.000000 4.000000 12.000000 
0.000000 4.000000 14.000000 
0.000000 4.000000 16.000000 
0.000000 4.000000 18.000000 
0.000000 4.000000 20.000000 
0.000000 4.000000 22.000000 
0.000000 4.000000 24.000000 
0.000000 4.000000 26.000000 
0.000000 4.000000 28.000000 
0.000000 4.000000 30.000000 
0.000000 4.000000 32.000000 
0.000000 4.000000 34.000000 
0.000000 4.000000 36.000000 
0.000000 4.000000 38.000000 
0.000000 4.000000 40.000000 
0.000000 4.000000 42.000000 
0.000000 4.000000 44.000000 
0.000000 4.000000 46.000000 
0.000000 4.000000 48.000000 
0.000000 4.000000 50.000000 
0.000000 4.000000 52.000000 
0.000000 4.000000 54.000000 
0.000000 4.000000 56.000000 
0.000000 4.000000 58.000000 
0.000000 4.000000 60.000000 
0.000000 4.000000 62.000000 
0.000000 4.000000 64.000000 
0.000000 4.000000 66.000000 
0.000000 4.000000 68.000000 
0.000000 4.000000 70.000000 
0.000000 4.000000 72.000000 
0.000000 4.000000 74.000000 
0.000000 4.000000 76.000000 
0.000000 4.000000 78.000000 
0.000000 4.000000 80.000000 
0.000000 4.000000 82.000000 
0.000000 4.000000 84.000000 
0.000000 4.000000 86.000000 
0.000000 4.000000 88.000000 
0.000000 4.000000 90.000000 
0.000000 4.000000 92.000000 
0.000000 4.000000 94.000000 
0.000000 4.000000 96.000000 
0.000000 4.000000 98.000000 
0.000000 4.000000 100.000000 
0.000000 6.000000 0.000000 
0.000000 6.000000 2.000000 
0.000000 6.000000 4.000000 
0.000000 6.000000 6.000000 
0.000000 6.000000 8.000000 
0.000000 6.000000 10.000000 
0.000000 6.000000 12.000000 
0.000000 6.000000 14.000000 
0.000000 6.000000 16.000000 
0.000000 6.000000 18.000000 
0.000000 6.000000 20.000000 
0.000000 6.000000 22.000000 
0.000000 6.000000 24.000000 
0.000000 6.000000 26.000000 
0.000000 6.000000 28.000000 
0.000000 6.000000 30.000000 
0.000000 6.000000 32.000000 
0.000000 6.000000 34.000000 
0.000000 6.000000 36.000000 
0.000000 6.000000 38.000000 
0.000000 6.000000 40.000000 
0.000000 6.000000 42.000000 
0.000000 6.000000 44.000000 
0.000000 6.000000 46.000000 
0.000000 6.000000 48.000000 
0.000000 6.000000 50.000000 
0.000000 6.000000 52.000000 
0.000000 6.000000 54.000000 
0.000000 6.000000 56.000000 
0.000000 6.000000 58.000000 
0.000000 6.000000 60.000000 
0.000000 6.000000 62.000000 
0.000000 6.000000 64.000000 
0.000000 6.000000 66.000000 
0.000000 6.000000 68.000000 
0.000000 6.000000 70.000000 
0.000000 6.000000 72.000000 
0.000000 6.000000 74.000000 
0.000000 6.000000 76.000000 
0.000000 6.000000 78.000000 
0.000000 6.000000 80.000000 
0.000000 6.000000 82.000000 
0.000000 6.000000 84.000000 
0.000000 6.000000 86.000000 
0.000000 6.000000 88.000000 
0.000000 6.000000 90.000000 
0.000000 6.000000 92.000000 
0.000000 6.000000 94.000000 
0.000000 6.000000 96.000000 
0.000000 6.000000 98.000000 
0.000000 6.000000 100.000000 
0.000000 8.000000 0.000000 
0.000000 8.000000 2.000000 
0.000000 8.000000 4.000000 
0.000000 8.000000 6.000000 
0.000000 8.000000 8.000000 
0.000000 8.000000 10.000000 
0.000000 8.000000 12.000000 
0.000000 8.000000 14.000000 
0.000000 8.000000 16.000000 
0.000000 8.000000 18.000000 
0.000000 8.000000 20.000000 
0.000000 8.000000 22.000000 
0.000000 8.000000 24.000000 
0.000000 8.000000 26.000000 
0.000000 8.000000 28.000000 
0.000000 8.000000 30.000000 
0.000000 8.000000 32.000000 
0.000000 8.000000 34.000000 
0.000000 8.000000 36.000000 
0.000000 8.000000 38.000000 
0.000000 8.000000 40.000000 
0.000000 8.000000 42.000000 
0.000000 8.000000 44.000000 
0.000000 8.000000 46.000000 
0.000000 8.000000 48.000000 
0.000000 8.000000 50.000000 
0.000000 8.000000 52.000000 
0.000000 8.000000 54.000000 
0.000000 8.000000 56.000000 
0.000000 8.000000 58.000000 
0.000000 8.000000 60.000000 
0.000000 8.000000 62.000000 
0.000000 8.000000 64.000000 
0.000000 8.000000 66.000000 
0.000000 8.000000 68.000000 
0.000000 8.000000 70.000000 
0.000000 8.000000 72.000000 
0.000000 8.000000 74.000000 
0.000000 8.000000 76.000000 
0.000000 8.000000 78.000000 
0.000000 8.000000 80.000000 
0.000000 8.000000 82.000000 
0.000000 8.000000 84.000000 
0.000000 8.000000 86.000000 
0.000000 8.000000 88.000000 
0.000000 8.000000 90.000000 
0.000000 8.000000 92.000000 
0.000000 8.000000 94.000000 
0.000000 8.000000 96.000000 
0.000000 8.000000 98.000000 
0.000000 8.000000 100.000000 
0.000000 10.000000 0.000000 
0.000000 10.000000 2.000000 
0.000000 10.000000 4.000000 
0.000000 10.000000 6.000000 
0.000000 10.000000 8.000000 
0.000000 10.000000 10.000000 
0.000000 10.000000 12.000000 
0.000000 10.000000 14.000000 
0.000000 10.000000 16.000000 
0.000000 10.000000 18.000000 
0.000000 10.000000 20.000000 
0.000000 10.000000 22.000000 
0.000000 10.000000 24.000000 
0.000000 10.000000 26.000000 
0.000000 10.000000 28.000000 
0.000000 10.000000 30.000000 
0.000000 10.000000 32.000000 
0.000000 10.000000 34.000000 
0.000000 10.000000 36.000000 
0.000000 10.000000 38.000000 
0.000000 10.000000 40.000000 
0.000000 10.000000 42.000000 
0.000000 10.000000 44.000000 
0.000000 10.000000 46.000000 
0.000000 10.000000 48.000000 
0.000000 10.000000 50.000000 
0.000000 10.000000 52.000000 
0.000000 10.000000 54.000000 
0.000000 10.000000 56.000000 
0.000000 10.000000 58.000000 
0.000000 10.000000 60.000000 
0.000000 10.000000 62.000000 
0.000000 10.000000 64.000000 
0.000000 10.000000 66.000000 
0.000000 10.000000 68.000000 
0.000000 10.000000 70.000000 
0.000000 10.000000 72.000000 
0.000000 10.000000 74.000000 
0.000000 10.000000 76.000000 
0.000000 10.000000 78.000000 
0.000000 10.000000 80.000000 
0.000000 10.000000 82.000000 
0.000000 10.000000 84.000000 
0.000000 10.000000 86.000000 
0.000000 10.000000 88.000000 
0.000000 10.000000 90.000000 
0.000000 10.000000 92.000000 
0.000000 10.000000 94.000000 
0.000000 10.000000 96.000000 
0.000000 10.000000 98.000000 
0.000000 10.000000 100.000000 
0.000000 12.000000 0.000000 
0.000000 12.000000 2.000000 
0.000000 12.000000 4.000000 
0.000000 12.000000 6.000000 
0.000000 12.000000 8.000000 
0.000000 12.000000 10.000000 
0.000000 12.000000 12.000000 
0.000000 12.000000 14.000000 
0.000000 12.000000 16.000000 
0.000000 12.000000 18.000000 
0.000000 12.000000 20.000000 
0.000000 12.000000 22.000000 
0.000000 12.000000 24.000000 
0.000000 12.000000 26.000000 
0.000000 12.000000 28.000000 
0.000000 12.000000 30.000000 
0.000000 12.000000 32.000000 
0.000000 12.000000 34.000000 
0.000000 12.000000 36.000000 
0.000000 12.000000 38.000000 
0.000000 12.000000 40.000000 
0.000000 12.000000 42.000000 
0.000000 12.000000 44.000000 
0.000000 12.000000 46.000000 
0.000000 12.000000 48.000000 
0.000000 12.000000 50.000000 
0.000000 12.000000 52.000000 
0.000000 12.000000 54.000000 
0.000000 12.000000 56.000000 
0.000000 12.000000 58.000000 
0.000000 12.000000 60.000000 
0.000000 12.000000 62.000000 
0.000000 12.000000 64.000000 
0.000000 12.000000 66.000000 
[...]
CELL_DATA 1600 
FIELD FieldData 2 
density 1 1600 float
0.001000 
0.001000 
0.001000 
0.001000 
0.001000 
0.001000 
0.001000 
0.001000 
0.001006 
0.002034 
0.019454 
0.102569 
0.318215 
0.587463 
0.766624 
0.838393 
0.858836 
0.859458 
0.865039 
0.855249 
0.851353 
0.855025 
0.851688 
0.848911 
0.850693 
0.851606 
0.852589 
0.853194 
0.854944 
0.858297 
0.859223 
0.860277 
0.865112 
0.864145 
0.865969 
0.870903 
0.868142 
0.871144 
0.874689 
0.872996 
0.874171 
0.878156 
0.877523 
0.875143 
0.883208 
0.880703 
0.873781 
0.892540 
0.882893 
0.848285 
0.001000 
0.001000 
0.001000 
0.001000 
0.001000 
0.001000 
0.001000 
0.001002 
0.001609 
0.016028 
0.105002 
0.325114 
0.548858 
0.648627 
0.643501 
0.576230 
0.513261 
0.491810 
0.491697 
0.482787 
0.476880 
0.474246 
0.474360 
0.468073 
0.471085 
0.471661 
0.474660 
0.476009 
0.479866 
0.485264 
0.487079 
0.493351 
0.495880 
0.500353 
0.503586 
0.507706 
0.510143 
0.512910 
0.517390 
0.518544 
0.520595 
0.525472 
0.525053 
0.527395 
0.533131 
0.529511 
0.534254 
0.546485 
0.530824 
0.501260 
0.001000 
0.001000 
0.001000 
0.001000 
0.001000 
0.001000 
0.001002 
0.001472 
0.013885 
0.105152 
0.366765 
0.624952 
0.678787 
0.616565 
0.473375 
0.312941 
0.173164 
0.119010 
0.110892 
0.106370 
0.101370 
0.103750 
0.099150 
0.100369 
0.098225 
0.101354 
0.100882 
0.102694 
0.104628 
0.106325 
0.109731 
0.109548 
0.114766 
0.114162 
0.117204 
0.119972 
0.119912 
0.122617 
0.124804 
0.125045 
0.126931 
0.128756 
0.129738 
0.130027 
0.132877 
0.133891 
0.131821 
0.142297 
0.138734 
0.116384 
0.001000 
0.001000 
0.001000 
0.001000 
0.001000 
0.001002 
0.001488 
0.013662 
0.102692 
0.370831 
0.643257 
0.627557 
0.507306 
0.457776 
0.441327 
0.221748 
0.048833 
0.010199 
0.005983 
0.005595 
0.005348 
0.005240 
0.005245 
0.004994 
0.005113 
0.005135 
0.005256 
0.005311 
0.005470 
0.005698 
0.005776 
0.006050 
0.006163 
0.006365 
0.006514 
0.006707 
0.006823 
0.006956 
0.007174 
0.007231 
0.007332 
0.007578 
0.007557 
0.007676 
0.007973 
0.007785 
0.008032 
0.008688 
0.008755 
0.006913 
0.001000 
0.001000 
0.001000 
0.001000 
0.001002 
0.001534 
0.014335 
0.103764 
0.368753 
0.639363 
0.565275 
0.313185 
0.184631 
0.297395 
0.450348 
0.275257 
0.038851 
0.002016 
0.001023 
0.001017 
0.001015 
0.001017 
0.001015 
0.001014 
0.001014 
0.001015 
0.001015 
0.001016 
0.001016 
0.001018 
0.001019 
0.001019 
0.001022 
0.001021 
0.001023 
0.001026 
0.001024 
0.001026 
0.001028 
0.001027 
0.001028 
0.001031 
0.001030 
0.001029 
0.001035 
0.001033 
0.001028 
0.001043 
0.001049 
0.001023 
0.001000 
0.001000 
0.001000 
0.001002 
0.001519 
0.014513 
0.107759 
0.375034 
0.641394 
0.564608 
0.260167 
0.062158 
0.037443 
0.143882 
0.437244 
0.399905 
0.077903 
0.003856 
0.001004 
0.001000 
0.001000 
0.001000 
0.001000 
0.001000 
0.001000 
0.001000 
0.001000 
0.001000 
0.001000 
0.001000 
0.001000 
0.001000 
0.001000 
0.001000 
0.001000 
0.001000 
0.001000 
0.001000 
0.001000 
0.001000 
0.001000 
0.001000 
0.001000 
0.001000 
0.001000 
0.001000 
0.001000 
0.001000 
0.001000 
0.001000 
0.001000 
0.001000 
0.001002 
0.001526 
0.014367 
0.106098 
0.376659 
0.646702 
0.566495 
0.260187 
0.048526 
0.005527 
0.004219 
0.052901 
0.342013 
0.498223 
0.201786 
0.016860 
0.001182 
0.001000 
0.001000 
0.001000 
0.001000 
0.001000 
0.001000 
0.001000 
0.001000 
0.001000 
0.001000 
0.001000 
0.001000 
0.001000 
0.001000 
0.001000 
0.001000 
0.001000 
0.001000 
0.001000 
0.001000 
0.001000 
0.001000 
0.001000 
0.001000 
0.001000 
0.001000 
0.001000 
0.001000 
0.001000 
0.001000 
0.001000 
0.001000 
0.001003 
0.001539 
0.014567 
0.107061 
0.375296 
0.644860 
0.566561 
0.260131 
0.048517 
0.004669 
0.001031 
0.001165 
0.015765 
0.193214 
0.494524 
0.355076 
0.058843 
0.002852 
0.001001 
0.001000 
0.001000 
0.001000 
0.001000 
0.001000 
0.001000 
0.001000 
0.001000 
0.001000 
0.001000 
0.001000 
0.001000 
0.001000 
0.001000 
0.001000 
0.001000 
0.001000 
0.001000 
0.001000 
0.001000 
0.001000 
0.001000 
0.001000 
0.001000 
0.001000 
0.001000 
0.001000 
0.001000 
0.001000 
0.001000 
0.001009 
0.001731 
0.015024 
0.107668 
0.377094 
0.645543 
0.565868 
0.260031 
0.048489 
0.004666 
0.001030 
0.001000 
0.001003 
0.003571 
0.072375 
0.391897 
0.480348 
0.153588 
0.009812 
0.001055 
0.001000 
0.001000 
0.001000 
0.001000 
0.001000 
0.001000 
0.001000 
0.001000 
0.001000 
0.001000 
0.001000 
0.001000 
0.001000 
0.001000 
0.001000 
0.001000 
0.001000 
0.001000 
0.001000 
0.001000 
0.001000 
0.001000 
0.001000 
0.001000 
0.001000 
0.001000 
0.001000 
0.001000 
0.001000 
0.001000 
0.002220 
0.017775 
0.112944 
0.381160 
0.646634 
0.566020 
0.259846 
0.048455 
0.004662 
0.001030 
0.001000 
0.001000 
0.001000 
0.001324 
0.026065 
0.255546 
0.518439 
0.276705 
0.030973 
0.001444 
0.001000 
0.001000 
0.001000 
0.001000 
0.001000 
0.001000 
0.001000 
0.001000 
0.001000 
0.001000 
0.001000 
0.001000 
0.001000 
0.001000 
0.001000 
0.001000 
0.001000 
0.001000 
0.001000 
0.001000 
0.001000 
0.001000 
0.001000 
0.001000 
0.001000 
0.001000 
0.001000 
0.001000 
0.001000 
0.001000 
0.020576 
0.111361 
0.380088 
0.653812 
0.566068 
0.259484 
0.048391 
0.004658 
0.001030 
0.001000 
0.001000 
0.001000 
0.001000 
0.001033 
0.007859 
0.132899 
0.463562 
0.406827 
0.081479 
0.004122 
0.001005 
0.001000 
0.001000 
0.001000 
0.001000 
0.001000 
0.001000 
0.001000 
0.001000 
0.001000 
0.001000 
0.001000 
0.001000 
0.001000 
0.001000 
0.001000 
0.001000 
0.001000 
0.001000 
0.001000 
0.001000 
0.001000 
0.001000 
0.001000 
0.001000 
0.001000 
0.001000 
0.001000 
0.001000 
0.001000 
0.100640 
0.327476 
0.634017 
0.625237 
0.311052 
0.072026 
0.008987 
0.001116 
0.001000 
0.001000 
0.001000 
0.001000 
0.001000 
0.001001 
0.002414 
0.052423 
0.342393 
0.505736 
0.206185 
0.017142 
0.001181 
0.001000 
0.001000 
0.001000 
0.001000 
0.001000 
0.001000 
0.001000 
0.001000 
0.001000 
0.001000 
0.001000 
0.001000 
0.001000 
0.001000 
0.001000 
0.001000 
0.001000 
0.001000 
0.001000 
0.001000 
0.001000 
0.001000 
0.001000 
0.001000 
0.001000 
0.001000 
0.001000 
0.001000 
0.001000 
0.296375 
0.537945 
0.677379 
0.494998 
0.200735 
0.069256 
0.017690 
0.004122 
0.001521 
0.001173 
0.001044 
0.001002 
0.001000 
0.001000 
0.001156 
0.015744 
0.198290 
0.502746 
0.354093 
0.056977 
0.002694 
0.001001 
0.001000 
0.001000 
0.001000 
0.001000 
0.001000 
0.001000 
0.001000 
0.001000 
0.001000 
0.001000 
0.001000 
0.001000 
0.001000 
0.001000 
0.001000 
0.001000 
0.001000 
0.001000 
0.001000 
0.001000 
0.001000 
0.001000 
0.001000 
0.001000 
0.001000 
0.001000 
0.001000 
0.001000 
0.537327 
0.641409 
0.612758 
0.436655 
0.315283 
0.253004 
0.180005 
0.083723 
0.039391 
0.020984 
0.009035 
0.002872 
0.001428 
0.001159 
0.001099 
0.004255 
0.075364 
0.398160 
0.474885 
0.145724 
0.008952 
0.001044 
0.001000 
0.001000 
0.001000 
0.001000 
0.001000 
0.001000 
0.001000 
0.001000 
0.001000 
0.001000 
0.001000 
0.001000 
0.001000 
0.001000 
0.001000 
0.001000 
0.001000 
0.001000 
0.001000 
0.001000 
0.001000 
0.001000 
0.001000 
0.001000 
0.001000 
0.001000 
0.001000 
0.001000 
0.742289 
0.635643 
0.454876 
0.375451 
0.414256 
0.506026 
0.493472 
0.392946 
0.321168 
0.252223 
0.145728 
0.067154 
0.035613 
0.019297 
0.007374 
0.006792 
0.050650 
0.322630 
0.549231 
0.256461 
0.024267 
0.001249 
0.001000 
0.001006 
0.001008 
0.001003 
0.001004 
0.001006 
0.001005 
0.001005 
0.001004 
0.001005 
0.001004 
0.001004 
0.001005 
0.001003 
0.001003 
0.001004 
0.001002 
0.001003 
0.001002 
0.001002 
0.001002 
0.001001 
0.001001 
0.001001 
0.001001 
0.001001 
0.001001 
0.001000 
0.815971 
0.533851 
0.257129 
0.155213 
0.183527 
0.267549 
0.320549 
0.388279 
0.501794 
0.560240 
0.471174 
0.374570 
0.313468 
0.236108 
0.127022 
0.073624 
0.128657 
0.392943 
0.643508 
0.368551 
0.060190 
0.004864 
0.001946 
0.002881 
0.003430 
0.003183 
0.003016 
0.003231 
0.003206 
0.003097 
0.003154 
0.003154 
0.003006 
0.003032 
0.002877 
0.002914 
0.002748 
0.002743 
0.002621 
0.002542 
0.002478 
0.002400 
0.002305 
0.002239 
0.002174 
0.002072 
0.002068 
0.002020 
0.001965 
0.001650 
0.810930 
0.430024 
0.108964 
0.024891 
0.017623 
0.023636 
0.038248 
0.079480 
0.190383 
0.292753 
0.357242 
0.428938 
0.528687 
0.538004 
0.454703 
0.386273 
0.411685 
0.581865 
0.759116 
0.555241 
0.206861 
0.067601 
0.050705 
0.067011 
0.078075 
0.069676 
0.072236 
0.072493 
0.072246 
0.072455 
0.071064 
0.071877 
0.071597 
0.066688 
0.071698 
0.064726 
0.067388 
0.064821 
0.062756 
0.062211 
0.060705 
0.058487 
0.058245 
0.055687 
0.054434 
0.054050 
0.051131 
0.052759 
0.048877 
0.040706 
0.804933 
0.389772 
0.067880 
0.004078 
0.001198 
0.001175 
0.001460 
0.003830 
0.013071 
0.029787 
0.053443 
0.112269 
0.207731 
0.300764 
0.390128 
0.452207 
0.495204 
0.602125 
0.765055 
0.774945 
0.568660 
0.410621 
0.388350 
0.430098 
0.449143 
0.440872 
0.435011 
0.442510 
0.441642 
0.437877 
0.439849 
0.439846 
0.434637 
0.435573 
0.429882 
0.431289 
0.424990 
0.424789 
0.419943 
0.416665 
0.413974 
0.410575 
0.406329 
0.403253 
0.400125 
0.395015 
0.394830 
0.392342 
0.377900 
0.363503 
0.815937 
0.395486 
0.064232 
0.002675 
0.001004 
0.001000 
0.001000 
0.001004 
0.001093 
0.001313 
0.002115 
0.006037 
0.015610 
0.033439 
0.071069 
0.147084 
0.233335 
0.382151 
0.693534 
0.889024 
0.904988 
0.839445 
0.834248 
0.869921 
0.876850 
0.860470 
0.865490 
0.869278 
0.865631 
0.867255 
0.864174 
0.868710 
0.864446 
0.861777 
0.866391 
0.860184 
0.860481 
0.862403 
0.855467 
0.858431 
0.855763 
0.852887 
0.854313 
0.849619 
0.850064 
0.848849 
0.844387 
0.849610 
0.833846 
0.815845 
0.812390 
0.397733 
0.064456 
0.002730 
0.001003 
0.001000 
0.001000 
0.001000 
0.001000 
0.001000 
0.001000 
0.001020 
0.001108 
0.001399 
0.003414 
0.014065 
0.070823 
0.310786 
0.691045 
0.949655 
0.999979 
0.999981 
0.999978 
0.999974 
0.999970 
0.999967 
0.999964 
0.999961 
0.999958 
0.999955 
0.999951 
0.999947 
0.999945 
0.999944 
0.999943 
0.999941 
0.999939 
0.999937 
0.999937 
0.999938 
0.999939 
0.999940 
0.999941 
0.999941 
0.999942 
0.999943 
0.999944 
0.999939 
0.999928 
0.999915 
0.811306 
0.394771 
0.064352 
0.002657 
0.001003 
0.001000 
0.001000 
0.001000 
0.001000 
0.001000 
0.001000 
0.001000 
0.001000 
0.001000 
0.001005 
0.002708 
0.048560 
0.332309 
0.782631 
0.999968 
0.812536 
0.396394 
0.064204 
0.002697 
0.001003 
0.001000 
0.001000 
0.001000 
0.001000 
0.001000 
0.001000 
0.001000 
0.001000 
0.001000 
0.001013 
0.004882 
0.087052 
0.468478 
0.821047 
0.877987 
0.813416 
0.397487 
0.065079 
0.002724 
0.001003 
0.001000 
0.001000 
0.001000 
0.001000 
0.001000 
0.001000 
0.001000 
0.001000 
0.001000 
0.001640 
0.026946 
0.237748 
0.616131 
0.714901 
0.560948 
0.813429 
0.397569 
0.065081 
0.002726 
0.001003 
0.001000 
0.001000 
0.001000 
0.001000 
0.001000 
0.001000 
0.001000 
0.001000 
0.001049 
0.008136 
0.109997 
0.466504 
0.689027 
0.469921 
0.198387 
0.812626 
0.398587 
0.065373 
0.002752 
0.001003 
0.001000 
0.001000 
0.001000 
0.001000 
0.001000 
0.001000 
0.001000 
0.001029 
0.003685 
0.044440 
0.287505 
0.658207 
0.580076 
0.225775 
0.047865 
0.815912 
0.401053 
0.066434 
0.002815 
0.001004 
0.001000 
0.001000 
0.001000 
0.001000 
0.001000 
0.001002 
0.001213 
0.005760 
0.039873 
0.198148 
0.525914 
0.673933 
0.361586 
0.070787 
0.007798 
0.815757 
0.401162 
0.066926 
0.002818 
0.001004 
0.001000 
0.001000 
0.001000 
0.001000 
0.001010 
0.001921 
0.013728 
0.074920 
0.237259 
0.462682 
0.686300 
0.547317 
0.166303 
0.016680 
0.001426 
0.813613 
0.403507 
0.067318 
0.002879 
0.001003 
0.001000 
0.001000 
0.001000 
0.001026 
0.003245 
0.026887 
0.133972 
0.323333 
0.431593 
0.538088 
0.606720 
0.400843 
0.073948 
0.003990 
0.001007 
0.821467 
0.406877 
0.068577 
0.002969 
0.001005 
0.001000 
0.001001 
0.001130 
0.005218 
0.041234 
0.197944 
0.410081 
0.430645 
0.312316 
0.273934 
0.429036 
0.318661 
0.053797 
0.002310 
0.001001 
0.815848 
0.400934 
0.068103 
0.002813 
0.001004 
0.001008 
0.001722 
0.011541 
0.065992 
0.248992 
0.451578 
0.450093 
0.234583 
0.075098 
0.099279 
0.305336 
0.307910 
0.055371 
0.002415 
0.001006 
0.809248 
0.404061 
0.065820 
0.003030 
0.001094 
0.002969 
0.023670 
0.121505 
0.314616 
0.448014 
0.396329 
0.191123 
0.039458 
0.010163 
0.040135 
0.266017 
0.312724 
0.055720 
0.002517 
0.001005 
0.827684 
0.417566 
0.081518 
0.007759 
0.007618 
0.040598 
0.185107 
0.397835 
0.448216 
0.306634 
0.117931 
0.024443 
0.003067 
0.001702 
0.030298 
0.264555 
0.307070 
0.053791 
0.002349 
0.001003 
0.833254 
0.435974 
0.115452 
0.042080 
0.083070 
0.247070 
0.433963 
0.450540 
0.255063 
0.062449 
0.010509 
0.001673 
0.001009 
0.001223 
0.030291 
0.264211 
0.302583 
0.052015 
0.002223 
0.001003 
0.800700 
0.447798 
0.187092 
0.162793 
0.317826 
0.436113 
0.362782 
0.183465 
0.042253 
0.005232 
0.001099 
0.001001 
0.001000 
0.001225 
0.030351 
0.262842 
0.298890 
0.049192 
0.002125 
0.001002 
0.752410 
0.498014 
0.293488 
0.330861 
0.431240 
0.323097 
0.100235 
0.019889 
0.002905 
0.001030 
0.001000 
0.001000 
0.001000 
0.001230 
0.030569 
0.262785 
0.293487 
0.047922 
0.001987 
0.001002 
0.668604 
0.551542 
0.422928 
0.369070 
0.274150 
0.096419 
0.012576 
0.001468 
0.001004 
0.001000 
0.001000 
0.001000 
0.001000 
0.001251 
0.031436 
0.263702 
0.288983 
0.044620 
0.001874 
0.001001 
0.466536 
0.563395 
0.522736 
0.297119 
0.104645 
0.014393 
0.001473 
0.001001 
0.001000 
0.001000 
0.001000 
0.001000 
0.001000 
0.001313 
0.033549 
0.267628 
0.282286 
0.041906 
0.001704 
0.001001 
0.221284 
0.450244 
0.568015 
0.337938 
0.072889 
0.006706 
0.001052 
0.001000 
0.001000 
0.001000 
0.001000 
0.001000 
0.001000 
0.001400 
0.036270 
0.273119 
0.277101 
0.038071 
0.001558 
0.001000 
0.060999 
0.238824 
0.486656 
0.471075 
0.190521 
0.033963 
0.003607 
0.001028 
0.001000 
0.001000 
0.001000 
0.001000 
0.001000 
0.001469 
0.039002 
0.275805 
0.268677 
0.034918 
0.001419 
0.001000 
0.007935 
0.052917 
0.249002 
0.471561 
0.446887 
0.215944 
0.044038 
0.004552 
0.001030 
0.001000 
0.001000 
0.001000 
0.001000 
0.001582 
0.040477 
0.281249 
0.263300 
0.032031 
0.001327 
0.001000 
0.001092 
0.005425 
0.047673 
0.240589 
0.477192 
0.483979 
0.247413 
0.048166 
0.005139 
0.001081 
0.001000 
0.001000 
0.001000 
0.001600 
0.043106 
0.281355 
0.261607 
0.030733 
0.001281 
0.001000 
0.001000 
0.001037 
0.004389 
0.042158 
0.213078 
0.453604 
0.475734 
0.256067 
0.059540 
0.008508 
0.001313 
0.001002 
0.001000 
0.001506 
0.038655 
0.275383 
0.257555 
0.030353 
0.001272 
0.001000 
0.001000 
0.001000 
0.001025 
0.003522 
0.032912 
0.178794 
0.422288 
0.481554 
0.297591 
0.089255 
0.013544 
0.001632 
0.001006 
0.001643 
0.045348 
0.272199 
0.242419 
0.031545 
0.001377 
0.001000 
0.001000 
0.001000 
0.001000 
0.001014 
0.002762 
0.027315 
0.159672 
0.399542 
0.497709 
0.341198 
0.114182 
0.018090 
0.002473 
0.004363 
0.066027 
0.295500 
0.247406 
0.037957 
0.002070 
0.001001 
0.001000 
0.001000 
0.001000 
0.001000 
0.001010 
0.002369 
0.022332 
0.129845 
0.358654 
0.496352 
0.373034 
0.133726 
0.028228 
0.021784 
0.110063 
0.283328 
0.233788 
0.065398 
0.006643 
0.001136 
0.001000 
0.001000 
0.001000 
0.001000 
0.001000 
0.001007 
0.001859 
0.015823 
0.100470 
0.323768 
0.489325 
0.383741 
0.165145 
0.096372 
0.131194 
0.198370 
0.178012 
0.101864 
0.021725 
0.002684 
0.001000 
0.001000 
0.001000 
0.001000 
0.001000 
0.001000 
0.001002 
0.001446 
0.011333 
0.080762 
0.292491 
0.469436 
0.440840 
0.305463 
0.199634 
0.128918 
0.116214 
0.121281 
0.051367 
0.007326 
0.001000 
0.001000 
0.001000 
0.001000 
0.001000 
0.001000 
0.001000 
0.001001 
0.001235 
0.008288 
0.064203 
0.264141 
0.476354 
0.507914 
0.353388 
0.192039 
0.175865 
0.207500 
0.117036 
0.032964 
0.001000 
0.001000 
0.001000 
0.001000 
0.001000 
0.001000 
0.001000 
0.001000 
0.001000 
0.001128 
0.006952 
0.055615 
0.225282 
0.409115 
0.464732 
0.420783 
0.443775 
0.464632 
0.329255 
0.135295 
0.001000 
0.001000 
0.001000 
0.001000 
0.001000 
0.001000 
0.001000 
0.001000 
0.001000 
0.001000 
0.001133 
0.007442 
0.050676 
0.181954 
0.414676 
0.618610 
0.767871 
0.809431 
0.603898 
0.406129 

stress 1 1600 float
0.000208 
0.000229 
0.001262 
0.003143 
0.006071 
0.009972 
0.013582 
0.018420 
0.409302 
0.834765 
0.960287 
1.119334 
1.214541 
1.320854 
1.438575 
1.539133 
1.586726 
1.606606 
1.619374 
1.659401 
1.692628 
1.714421 
1.740851 
1.768232 
1.783568 
1.799454 
1.812084 
1.824293 
1.832181 
1.835694 
1.842582 
1.845778 
1.844808 
1.849128 
1.849542 
1.844745 
1.849650 
1.846500 
1.841310 
1.843724 
1.841750 
1.834666 
1.835481 
1.837039 
1.824027 
1.828062 
1.834242 
1.805478 
1.832033 
1.775564 
0.000226 
0.001646 
0.003679 
0.006269 
0.009394 
0.012657 
0.016157 
0.278773 
0.768975 
1.206180 
1.491286 
1.632725 
1.643779 
1.576243 
1.500787 
1.481003 
1.555187 
1.619793 
1.640308 
1.665328 
1.670635 
1.653551 
1.641007 
1.633158 
1.612767 
1.591814 
1.572321 
1.554778 
1.534293 
1.512862 
1.497505 
1.480508 
1.464312 
1.453491 
1.441516 
1.428732 
1.423582 
1.414721 
1.404602 
1.402256 
1.397035 
1.387936 
1.387565 
1.384904 
1.373680 
1.378277 
1.376869 
1.358438 
1.378877 
1.325603 
0.001252 
0.003672 
0.006250 
0.009074 
0.012011 
0.015043 
0.243050 
0.667556 
1.118515 
1.475343 
1.644536 
1.637359 
1.530330 
1.446263 
1.433587 
1.444865 
1.503513 
1.584040 
1.496286 
1.444143 
1.416612 
1.352274 
1.329684 
1.283871 
1.252930 
1.200062 
1.167833 
1.129584 
1.092873 
1.059965 
1.026118 
1.006084 
0.972289 
0.959696 
0.938072 
0.919561 
0.911772 
0.897487 
0.885270 
0.881176 
0.873073 
0.864611 
0.861631 
0.859000 
0.849267 
0.848577 
0.849607 
0.811155 
0.793400 
0.922082 
0.003034 
0.006183 
0.009077 
0.011912 
0.014701 
0.246351 
0.633094 
1.042038 
1.413413 
1.635465 
1.647934 
1.502414 
1.327710 
1.264251 
1.319275 
1.465379 
1.485766 
1.373477 
1.257878 
1.090237 
1.010605 
0.943322 
0.907437 
0.870354 
0.834165 
0.789552 
0.752398 
0.713789 
0.674466 
0.636817 
0.601055 
0.571681 
0.538150 
0.515879 
0.491598 
0.469298 
0.455174 
0.438712 
0.423901 
0.415593 
0.405945 
0.395921 
0.390954 
0.386459 
0.376360 
0.373421 
0.367748 
0.333682 
0.320368 
0.494535 
0.005574 
0.008955 
0.011901 
0.014795 
0.248389 
0.636678 
1.017407 
1.388606 
1.644750 
1.699410 
1.587863 
1.376899 
1.328076 
1.401051 
1.376784 
1.468628 
1.621412 
1.453888 
0.894634 
0.746935 
0.698146 
0.695382 
0.671635 
0.652681 
0.642327 
0.627183 
0.606563 
0.581563 
0.556408 
0.531953 
0.500436 
0.466074 
0.440559 
0.402174 
0.369781 
0.342998 
0.305823 
0.278321 
0.252459 
0.223375 
0.199461 
0.178982 
0.158608 
0.138955 
0.125995 
0.112670 
0.095728 
0.091079 
0.101300 
0.146731 
0.008817 
0.011969 
0.015004 
0.251961 
0.648303 
1.028828 
1.373809 
1.636707 
1.723176 
1.617717 
1.418810 
1.195049 
1.549840 
1.638435 
1.497974 
1.521433 
1.479569 
1.245330 
0.558686 
0.035184 
0.031937 
0.030898 
0.030506 
0.029983 
0.029346 
0.028524 
0.027935 
0.027580 
0.027065 
0.026286 
0.025314 
0.024272 
0.022762 
0.021137 
0.019804 
0.018414 
0.016547 
0.014462 
0.012698 
0.011211 
0.009837 
0.008314 
0.006799 
0.005564 
0.004653 
0.003835 
0.003064 
0.002575 
0.002933 
0.004797 
0.012856 
0.015873 
0.267937 
0.673849 
1.058190 
1.406438 
1.644823 
1.722370 
1.622508 
1.385439 
1.082734 
1.009123 
1.581359 
1.563905 
1.512794 
1.597607 
1.422488 
1.026617 
0.703212 
0.032763 
0.029580 
0.028631 
0.027991 
0.027638 
0.027155 
0.026634 
0.026370 
0.026527 
0.026491 
0.025933 
0.025070 
0.023762 
0.022203 
0.020998 
0.020732 
0.020242 
0.018731 
0.016529 
0.014280 
0.012409 
0.010499 
0.008480 
0.006545 
0.005017 
0.003812 
0.002720 
0.001617 
0.000703 
0.001557 
0.003341 
0.018909 
0.308897 
0.731063 
1.102990 
1.428907 
1.662545 
1.727343 
1.615608 
1.366627 
1.008951 
0.779761 
0.660141 
1.111446 
1.189850 
1.438839 
1.655833 
1.528357 
1.151350 
0.746643 
0.332085 
0.027285 
0.026247 
0.025820 
0.025730 
0.025567 
0.025157 
0.024855 
0.024826 
0.024819 
0.024312 
0.023135 
0.021671 
0.019823 
0.018966 
0.019345 
0.019913 
0.018978 
0.016988 
0.014748 
0.012564 
0.010600 
0.008478 